LAMMPS data file. CGCMM style. atom_style full generated by VMD/TopoTools v1.2 on Sun Apr 27 22:43:27 CDT 2014
 6540 atoms
 4360 bonds
 2180 angles
 0 dihedrals
 0 impropers
 2 atom types
 1 bond types
 1 angle types
 0 dihedral types
 0 improper types
 -0.415000 80.000  xlo xhi
 -0.375000 40.625  ylo yhi
 -0.420000 40.580  zlo zhi

# Pair Coeffs
#
# 1  HW
# 2  OW

# Bond Coeffs
#
# 1  

# Angle Coeffs
#
# 1  unknown

 Masses

 1 1.007940 # HW
 2 15.999400 # OW

 Atoms

1 1 2 -0.847600 7.600000 6.380000 11.420000 # OW SOL
2 1 1 0.423800 8.480000 5.970000 11.670000 # HW SOL
3 1 1 0.423800 7.230000 6.870000 12.210000 # HW SOL
4 2 2 -0.847600 19.379999 33.939999 36.529999 # OW SOL
5 2 1 0.423800 19.290001 34.650002 35.840000 # HW SOL
6 2 1 0.423800 18.559999 33.910000 37.099998 # HW SOL
7 3 2 -0.847600 11.930000 16.660000 5.190000 # OW SOL
8 3 1 0.423800 11.970000 15.730000 5.560000 # HW SOL
9 3 1 0.423800 12.330000 16.670000 4.280000 # HW SOL
10 4 2 -0.847600 23.420000 21.309999 15.810000 # OW SOL
11 4 1 0.423800 24.150000 21.950001 15.570000 # HW SOL
12 4 1 0.423800 22.559999 21.809999 15.910000 # HW SOL
13 5 2 -0.847600 30.260000 0.360000 16.000000 # OW SOL
14 5 1 0.423800 31.129999 0.080000 15.580000 # HW SOL
15 5 1 0.423800 29.780001 0.980000 15.390000 # HW SOL
16 6 2 -0.847600 22.850000 38.779999 3.030000 # OW SOL
17 6 1 0.423800 22.150000 38.070000 3.110000 # HW SOL
18 6 1 0.423800 23.350000 38.849998 3.890000 # HW SOL
19 7 2 -0.847600 21.040001 0.830000 14.130000 # OW SOL
20 7 1 0.423800 20.459999 0.320000 13.500000 # HW SOL
21 7 1 0.423800 21.610001 0.190000 14.650000 # HW SOL
22 8 2 -0.847600 36.439999 31.120001 9.620000 # OW SOL
23 8 1 0.423800 35.459999 30.959999 9.490000 # HW SOL
24 8 1 0.423800 36.759998 31.820000 8.980000 # HW SOL
25 9 2 -0.847600 3.560000 6.190000 5.110000 # OW SOL
26 9 1 0.423800 3.770000 7.140000 5.320000 # HW SOL
27 9 1 0.423800 4.130000 5.590000 5.670000 # HW SOL
28 10 2 -0.847600 18.809999 2.350000 23.270000 # OW SOL
29 10 1 0.423800 19.010000 2.570000 22.320000 # HW SOL
30 10 1 0.423800 17.940001 1.860000 23.320000 # HW SOL
31 11 2 -0.847600 17.420000 28.920000 3.720000 # OW SOL
32 11 1 0.423800 17.510000 27.959999 3.450000 # HW SOL
33 11 1 0.423800 16.480000 29.230000 3.550000 # HW SOL
34 12 2 -0.847600 12.500000 5.150000 33.110001 # OW SOL
35 12 1 0.423800 13.090000 4.500000 32.630001 # HW SOL
36 12 1 0.423800 13.010000 5.580000 33.849998 # HW SOL
37 13 2 -0.847600 13.950000 15.610000 0.770000 # OW SOL
38 13 1 0.423800 14.370000 15.410000 -0.120000 # HW SOL
39 13 1 0.423800 14.600000 15.390000 1.500000 # HW SOL
40 14 2 -0.847600 29.070000 24.590000 27.340000 # OW SOL
41 14 1 0.423800 28.389999 25.180000 26.920000 # HW SOL
42 14 1 0.423800 29.080000 23.709999 26.879999 # HW SOL
43 15 2 -0.847600 5.610000 4.540000 13.940000 # OW SOL
44 15 1 0.423800 5.250000 4.690000 14.860000 # HW SOL
45 15 1 0.423800 6.190000 5.310000 13.680000 # HW SOL
46 16 2 -0.847600 34.189999 15.000000 26.250000 # OW SOL
47 16 1 0.423800 35.150002 14.740000 26.139999 # HW SOL
48 16 1 0.423800 33.980000 15.110000 27.219999 # HW SOL
49 17 2 -0.847600 36.259998 27.610001 12.710000 # OW SOL
50 17 1 0.423800 37.040001 28.120001 12.350000 # HW SOL
51 17 1 0.423800 35.830002 27.090000 11.970000 # HW SOL
52 18 2 -0.847600 19.540001 30.389999 5.490000 # OW SOL
53 18 1 0.423800 18.770000 30.309999 4.870000 # HW SOL
54 18 1 0.423800 19.559999 29.610001 6.120000 # HW SOL
55 19 2 -0.847600 4.450000 27.520000 6.410000 # OW SOL
56 19 1 0.423800 3.510000 27.790001 6.580000 # HW SOL
57 19 1 0.423800 4.720000 27.820000 5.490000 # HW SOL
58 20 2 -0.847600 1.280000 10.460000 23.969999 # OW SOL
59 20 1 0.423800 0.550000 11.120000 23.760000 # HW SOL
60 20 1 0.423800 1.570000 10.580000 24.920000 # HW SOL
61 21 2 -0.847600 31.290001 30.940001 0.960000 # OW SOL
62 21 1 0.423800 30.430000 31.200001 1.410000 # HW SOL
63 21 1 0.423800 31.709999 30.190001 1.460000 # HW SOL
64 22 2 -0.847600 19.570000 29.620001 30.620001 # OW SOL
65 22 1 0.423800 19.000000 28.799999 30.590000 # HW SOL
66 22 1 0.423800 20.219999 29.549999 31.370001 # HW SOL
67 23 2 -0.847600 37.049999 13.940000 37.029999 # OW SOL
68 23 1 0.423800 37.830002 13.480000 37.450001 # HW SOL
69 23 1 0.423800 37.099998 13.830000 36.029999 # HW SOL
70 24 2 -0.847600 37.540001 3.600000 3.940000 # OW SOL
71 24 1 0.423800 37.139999 4.050000 4.730000 # HW SOL
72 24 1 0.423800 37.009998 2.780000 3.710000 # HW SOL
73 25 2 -0.847600 5.150000 3.950000 28.709999 # OW SOL
74 25 1 0.423800 5.520000 3.890000 27.780001 # HW SOL
75 25 1 0.423800 4.230000 3.550000 28.719999 # HW SOL
76 26 2 -0.847600 10.910000 4.590000 20.200001 # OW SOL
77 26 1 0.423800 11.380000 3.870000 20.700001 # HW SOL
78 26 1 0.423800 9.930000 4.510000 20.340000 # HW SOL
79 27 2 -0.847600 33.119999 2.480000 1.590000 # OW SOL
80 27 1 0.423800 33.009998 3.110000 0.820000 # HW SOL
81 27 1 0.423800 32.450001 2.700000 2.300000 # HW SOL
82 28 2 -0.847600 3.770000 22.020000 29.139999 # OW SOL
83 28 1 0.423800 2.850000 22.350000 29.330000 # HW SOL
84 28 1 0.423800 4.040000 22.309999 28.219999 # HW SOL
85 29 2 -0.847600 37.939999 1.510000 1.630000 # OW SOL
86 29 1 0.423800 38.240002 2.290000 2.190000 # HW SOL
87 29 1 0.423800 37.450001 1.850000 0.830000 # HW SOL
88 30 2 -0.847600 28.889999 2.680000 23.750000 # OW SOL
89 30 1 0.423800 29.690001 2.820000 23.150000 # HW SOL
90 30 1 0.423800 28.049999 2.840000 23.219999 # HW SOL
91 31 2 -0.847600 8.320000 21.900000 14.220000 # OW SOL
92 31 1 0.423800 8.500000 21.670000 13.270000 # HW SOL
93 31 1 0.423800 7.460000 22.400000 14.300000 # HW SOL
94 32 2 -0.847600 26.930000 7.510000 33.840000 # OW SOL
95 32 1 0.423800 26.680000 6.840000 33.150002 # HW SOL
96 32 1 0.423800 27.680000 8.090000 33.509998 # HW SOL
97 33 2 -0.847600 30.809999 5.580000 29.250000 # OW SOL
98 33 1 0.423800 30.850000 4.630000 29.580000 # HW SOL
99 33 1 0.423800 29.900000 5.950000 29.420000 # HW SOL
100 34 2 -0.847600 28.309999 9.830000 4.940000 # OW SOL
101 34 1 0.423800 27.830000 8.990000 4.710000 # HW SOL
102 34 1 0.423800 28.840000 9.700000 5.770000 # HW SOL
103 35 2 -0.847600 17.850000 36.570000 13.120000 # OW SOL
104 35 1 0.423800 18.280001 36.209999 13.940000 # HW SOL
105 35 1 0.423800 17.139999 35.939999 12.800000 # HW SOL
106 36 2 -0.847600 39.680000 3.700000 36.570000 # OW SOL
107 36 1 0.423800 39.750000 2.850000 36.040001 # HW SOL
108 36 1 0.423800 39.759998 3.490000 37.540001 # HW SOL
109 37 2 -0.847600 7.660000 37.990002 36.779999 # OW SOL
110 37 1 0.423800 7.220000 37.090000 36.770000 # HW SOL
111 37 1 0.423800 7.040000 38.669998 36.400002 # HW SOL
112 38 2 -0.847600 23.350000 17.090000 9.490000 # OW SOL
113 38 1 0.423800 22.440001 16.780001 9.750000 # HW SOL
114 38 1 0.423800 23.610001 16.690001 8.620000 # HW SOL
115 39 2 -0.847600 21.940001 14.710000 3.370000 # OW SOL
116 39 1 0.423800 22.379999 15.610000 3.440000 # HW SOL
117 39 1 0.423800 21.830000 14.320000 4.280000 # HW SOL
118 40 2 -0.847600 18.530001 1.630000 32.189999 # OW SOL
119 40 1 0.423800 17.959999 1.650000 31.379999 # HW SOL
120 40 1 0.423800 19.049999 2.480000 32.259998 # HW SOL
121 41 2 -0.847600 2.890000 27.530001 2.630000 # OW SOL
122 41 1 0.423800 2.180000 27.799999 3.280000 # HW SOL
123 41 1 0.423800 2.580000 27.700001 1.690000 # HW SOL
124 42 2 -0.847600 31.650000 9.220000 28.209999 # OW SOL
125 42 1 0.423800 31.580000 10.130000 27.790001 # HW SOL
126 42 1 0.423800 30.740000 8.860000 28.389999 # HW SOL
127 43 2 -0.847600 23.410000 35.709999 17.940001 # OW SOL
128 43 1 0.423800 24.260000 35.919998 18.430000 # HW SOL
129 43 1 0.423800 23.129999 34.770000 18.160000 # HW SOL
130 44 2 -0.847600 6.580000 33.959999 14.150000 # OW SOL
131 44 1 0.423800 7.380000 34.189999 14.700000 # HW SOL
132 44 1 0.423800 6.560000 34.509998 13.320000 # HW SOL
133 45 2 -0.847600 27.490000 24.299999 21.799999 # OW SOL
134 45 1 0.423800 27.700001 23.570000 22.440001 # HW SOL
135 45 1 0.423800 28.330000 24.780001 21.549999 # HW SOL
136 46 2 -0.847600 36.990002 14.270000 26.600000 # OW SOL
137 46 1 0.423800 37.119999 14.570000 27.540001 # HW SOL
138 46 1 0.423800 37.490002 14.870000 25.980000 # HW SOL
139 47 2 -0.847600 16.370001 15.500000 33.830002 # OW SOL
140 47 1 0.423800 15.900000 14.830000 34.410000 # HW SOL
141 47 1 0.423800 15.730000 16.200001 33.529999 # HW SOL
142 48 2 -0.847600 32.459999 13.130000 5.110000 # OW SOL
143 48 1 0.423800 32.209999 13.160000 4.150000 # HW SOL
144 48 1 0.423800 32.400002 12.190000 5.440000 # HW SOL
145 49 2 -0.847600 26.780001 27.559999 27.469999 # OW SOL
146 49 1 0.423800 26.870001 28.540001 27.290001 # HW SOL
147 49 1 0.423800 26.760000 27.410000 28.459999 # HW SOL
148 50 2 -0.847600 20.889999 21.520000 5.830000 # OW SOL
149 50 1 0.423800 21.750000 21.530001 6.350000 # HW SOL
150 50 1 0.423800 20.459999 22.430000 5.880000 # HW SOL
151 51 2 -0.847600 27.230000 23.110001 2.410000 # OW SOL
152 51 1 0.423800 26.879999 24.020000 2.630000 # HW SOL
153 51 1 0.423800 26.969999 22.860001 1.480000 # HW SOL
154 52 2 -0.847600 32.410000 18.430000 15.470000 # OW SOL
155 52 1 0.423800 32.650002 19.170000 16.100000 # HW SOL
156 52 1 0.423800 33.169998 17.780001 15.420000 # HW SOL
157 53 2 -0.847600 24.680000 23.719999 9.000000 # OW SOL
158 53 1 0.423800 25.280001 23.309999 9.690000 # HW SOL
159 53 1 0.423800 25.030001 24.620001 8.760000 # HW SOL
160 54 2 -0.847600 26.230000 32.720001 7.950000 # OW SOL
161 54 1 0.423800 26.629999 33.340000 8.630000 # HW SOL
162 54 1 0.423800 26.969999 32.230000 7.480000 # HW SOL
163 55 2 -0.847600 28.770000 31.360001 1.880000 # OW SOL
164 55 1 0.423800 28.110001 32.099998 1.950000 # HW SOL
165 55 1 0.423800 28.459999 30.590000 2.440000 # HW SOL
166 56 2 -0.847600 31.540001 18.870001 10.110000 # OW SOL
167 56 1 0.423800 31.360001 19.070000 11.070000 # HW SOL
168 56 1 0.423800 32.500000 18.610001 9.990000 # HW SOL
169 57 2 -0.847600 8.860000 16.200001 22.270000 # OW SOL
170 57 1 0.423800 8.040000 16.559999 21.820000 # HW SOL
171 57 1 0.423800 8.990000 15.250000 22.010000 # HW SOL
172 58 2 -0.847600 14.960000 11.490000 33.830002 # OW SOL
173 58 1 0.423800 14.410000 11.420000 33.000000 # HW SOL
174 58 1 0.423800 15.850000 11.890000 33.599998 # HW SOL
175 59 2 -0.847600 18.760000 26.379999 21.219999 # OW SOL
176 59 1 0.423800 17.950001 25.879999 21.530001 # HW SOL
177 59 1 0.423800 19.540001 26.160000 21.799999 # HW SOL
178 60 2 -0.847600 24.410000 12.170000 19.290001 # OW SOL
179 60 1 0.423800 24.639999 11.730000 20.160000 # HW SOL
180 60 1 0.423800 23.950001 13.040000 19.469999 # HW SOL
181 61 2 -0.847600 2.970000 32.560001 31.580000 # OW SOL
182 61 1 0.423800 3.730000 32.470001 30.930000 # HW SOL
183 61 1 0.423800 2.650000 31.650000 31.850000 # HW SOL
184 62 2 -0.847600 3.260000 38.650002 35.650002 # OW SOL
185 62 1 0.423800 3.230000 38.150002 36.509998 # HW SOL
186 62 1 0.423800 4.210000 38.860001 35.419998 # HW SOL
187 63 2 -0.847600 10.220000 21.030001 26.420000 # OW SOL
188 63 1 0.423800 10.750000 21.450001 27.150000 # HW SOL
189 63 1 0.423800 9.410000 20.600000 26.809999 # HW SOL
190 64 2 -0.847600 36.270000 28.760000 33.080002 # OW SOL
191 64 1 0.423800 36.180000 29.610001 33.610001 # HW SOL
192 64 1 0.423800 35.810001 28.860001 32.200001 # HW SOL
193 65 2 -0.847600 38.009998 26.030001 6.620000 # OW SOL
194 65 1 0.423800 38.689999 25.330000 6.410000 # HW SOL
195 65 1 0.423800 38.419998 26.930000 6.550000 # HW SOL
196 66 2 -0.847600 39.730000 9.420000 36.330002 # OW SOL
197 66 1 0.423800 40.360001 8.680000 36.599998 # HW SOL
198 66 1 0.423800 40.240002 10.280000 36.270000 # HW SOL
199 67 2 -0.847600 29.250000 15.340000 29.969999 # OW SOL
200 67 1 0.423800 28.500000 15.430000 29.320000 # HW SOL
201 67 1 0.423800 30.070000 15.770000 29.580000 # HW SOL
202 68 2 -0.847600 2.240000 15.050000 10.190000 # OW SOL
203 68 1 0.423800 1.720000 15.230000 11.020000 # HW SOL
204 68 1 0.423800 3.070000 14.540000 10.430000 # HW SOL
205 69 2 -0.847600 21.370001 37.490002 16.530001 # OW SOL
206 69 1 0.423800 20.469999 37.549999 16.959999 # HW SOL
207 69 1 0.423800 21.920000 36.799999 16.990000 # HW SOL
208 70 2 -0.847600 10.030000 30.730000 33.599998 # OW SOL
209 70 1 0.423800 9.510000 31.520000 33.290001 # HW SOL
210 70 1 0.423800 10.080000 30.740000 34.599998 # HW SOL
211 71 2 -0.847600 35.230000 9.500000 18.340000 # OW SOL
212 71 1 0.423800 35.439999 8.720000 17.760000 # HW SOL
213 71 1 0.423800 35.500000 9.290000 19.280001 # HW SOL
214 72 2 -0.847600 1.020000 19.299999 33.000000 # OW SOL
215 72 1 0.423800 1.530000 18.450001 32.860001 # HW SOL
216 72 1 0.423800 0.080000 19.190001 32.669998 # HW SOL
217 73 2 -0.847600 9.180000 35.130001 9.090000 # OW SOL
218 73 1 0.423800 9.860000 34.450001 8.840000 # HW SOL
219 73 1 0.423800 8.450000 35.150002 8.410000 # HW SOL
220 74 2 -0.847600 34.830002 11.080000 38.240002 # OW SOL
221 74 1 0.423800 34.799999 11.620000 39.070000 # HW SOL
222 74 1 0.423800 34.750000 10.110000 38.470001 # HW SOL
223 75 2 -0.847600 13.720000 19.400000 39.650002 # OW SOL
224 75 1 0.423800 12.980000 19.309999 40.310001 # HW SOL
225 75 1 0.423800 13.360000 19.799999 38.799999 # HW SOL
226 76 2 -0.847600 39.000000 29.549999 24.490000 # OW SOL
227 76 1 0.423800 38.730000 30.450001 24.840000 # HW SOL
228 76 1 0.423800 38.540001 29.379999 23.620001 # HW SOL
229 77 2 -0.847600 22.549999 25.680000 35.790001 # OW SOL
230 77 1 0.423800 22.020000 25.330000 36.570000 # HW SOL
231 77 1 0.423800 22.059999 25.500000 34.939999 # HW SOL
232 78 2 -0.847600 25.780001 5.410000 17.200001 # OW SOL
233 78 1 0.423800 25.879999 6.360000 17.500000 # HW SOL
234 78 1 0.423800 26.650000 5.090000 16.820000 # HW SOL
235 79 2 -0.847600 5.910000 39.150002 2.660000 # OW SOL
236 79 1 0.423800 5.890000 38.759998 1.730000 # HW SOL
237 79 1 0.423800 5.010000 39.070000 3.070000 # HW SOL
238 80 2 -0.847600 35.860001 23.670000 12.510000 # OW SOL
239 80 1 0.423800 36.310001 24.070000 11.710000 # HW SOL
240 80 1 0.423800 35.099998 23.090000 12.210000 # HW SOL
241 81 2 -0.847600 28.389999 30.209999 10.040000 # OW SOL
242 81 1 0.423800 29.120001 30.129999 10.710000 # HW SOL
243 81 1 0.423800 28.770000 30.389999 9.140000 # HW SOL
244 82 2 -0.847600 0.670000 31.570000 10.580000 # OW SOL
245 82 1 0.423800 0.840000 30.930000 11.330000 # HW SOL
246 82 1 0.423800 1.450000 31.540001 9.950000 # HW SOL
247 83 2 -0.847600 21.469999 21.650000 22.799999 # OW SOL
248 83 1 0.423800 21.450001 21.719999 21.799999 # HW SOL
249 83 1 0.423800 20.690001 21.120001 23.110001 # HW SOL
250 84 2 -0.847600 14.280000 37.439999 21.450001 # OW SOL
251 84 1 0.423800 14.540000 38.160000 20.809999 # HW SOL
252 84 1 0.423800 13.430000 37.700001 21.920000 # HW SOL
253 85 2 -0.847600 26.350000 9.500000 15.630000 # OW SOL
254 85 1 0.423800 27.170000 9.180000 16.100000 # HW SOL
255 85 1 0.423800 25.639999 9.700000 16.309999 # HW SOL
256 86 2 -0.847600 35.380001 29.650000 40.139999 # OW SOL
257 86 1 0.423800 34.660000 29.000000 40.380001 # HW SOL
258 86 1 0.423800 35.439999 29.750000 39.150002 # HW SOL
259 87 2 -0.847600 2.740000 17.110001 37.580002 # OW SOL
260 87 1 0.423800 2.190000 16.610001 36.910000 # HW SOL
261 87 1 0.423800 2.170000 17.809999 38.020000 # HW SOL
262 88 2 -0.847600 21.780001 1.170000 17.480000 # OW SOL
263 88 1 0.423800 20.950001 0.700000 17.760000 # HW SOL
264 88 1 0.423800 22.209999 0.680000 16.719999 # HW SOL
265 89 2 -0.847600 4.030000 33.700001 15.150000 # OW SOL
266 89 1 0.423800 3.780000 34.639999 15.410000 # HW SOL
267 89 1 0.423800 4.860000 33.709999 14.610000 # HW SOL
268 90 2 -0.847600 19.270000 7.980000 26.850000 # OW SOL
269 90 1 0.423800 19.690001 8.670000 27.450001 # HW SOL
270 90 1 0.423800 19.930000 7.250000 26.670000 # HW SOL
271 91 2 -0.847600 39.849998 38.060001 13.760000 # OW SOL
272 91 1 0.423800 39.380001 38.750000 13.210000 # HW SOL
273 91 1 0.423800 40.549999 37.610001 13.210000 # HW SOL
274 92 2 -0.847600 30.530001 7.290000 21.790001 # OW SOL
275 92 1 0.423800 30.969999 6.390000 21.719999 # HW SOL
276 92 1 0.423800 29.610001 7.230000 21.400000 # HW SOL
277 93 2 -0.847600 13.980000 24.440001 3.220000 # OW SOL
278 93 1 0.423800 14.090000 24.940001 4.080000 # HW SOL
279 93 1 0.423800 14.430000 23.549999 3.290000 # HW SOL
280 94 2 -0.847600 6.780000 15.620000 9.850000 # OW SOL
281 94 1 0.423800 7.080000 16.030001 10.710000 # HW SOL
282 94 1 0.423800 7.290000 16.020000 9.090000 # HW SOL
283 95 2 -0.847600 28.680000 6.720000 13.730000 # OW SOL
284 95 1 0.423800 29.590000 6.750000 13.310000 # HW SOL
285 95 1 0.423800 27.980000 6.710000 13.020000 # HW SOL
286 96 2 -0.847600 23.000000 2.640000 34.570000 # OW SOL
287 96 1 0.423800 23.530001 2.570000 35.410000 # HW SOL
288 96 1 0.423800 23.430000 2.090000 33.860001 # HW SOL
289 97 2 -0.847600 10.230000 9.770000 3.190000 # OW SOL
290 97 1 0.423800 10.160000 9.000000 2.560000 # HW SOL
291 97 1 0.423800 9.410000 9.820000 3.750000 # HW SOL
292 98 2 -0.847600 28.080000 9.580000 23.690001 # OW SOL
293 98 1 0.423800 27.660000 9.890000 22.840000 # HW SOL
294 98 1 0.423800 28.950001 10.050000 23.830000 # HW SOL
295 99 2 -0.847600 20.280001 29.180000 33.549999 # OW SOL
296 99 1 0.423800 19.719999 28.370001 33.740002 # HW SOL
297 99 1 0.423800 19.690001 30.000000 33.560001 # HW SOL
298 100 2 -0.847600 12.290000 32.799999 13.620000 # OW SOL
299 100 1 0.423800 13.040000 32.680000 14.260000 # HW SOL
300 100 1 0.423800 12.150000 33.779999 13.450000 # HW SOL
301 101 2 -0.847600 26.330000 17.370001 29.309999 # OW SOL
302 101 1 0.423800 27.160000 17.010000 28.889999 # HW SOL
303 101 1 0.423800 26.559999 18.150000 29.900000 # HW SOL
304 102 2 -0.847600 29.610001 25.889999 15.600000 # OW SOL
305 102 1 0.423800 29.910000 24.959999 15.380000 # HW SOL
306 102 1 0.423800 29.139999 26.280001 14.810000 # HW SOL
307 103 2 -0.847600 11.800000 38.560001 11.020000 # OW SOL
308 103 1 0.423800 12.790000 38.599998 11.120000 # HW SOL
309 103 1 0.423800 11.560000 38.540001 10.060000 # HW SOL
310 104 2 -0.847600 12.140000 38.630001 32.840000 # OW SOL
311 104 1 0.423800 12.420000 39.580002 33.000000 # HW SOL
312 104 1 0.423800 12.930000 38.029999 32.950001 # HW SOL
313 105 2 -0.847600 23.920000 5.100000 4.610000 # OW SOL
314 105 1 0.423800 24.370001 4.860000 5.470000 # HW SOL
315 105 1 0.423800 23.170000 4.470000 4.430000 # HW SOL
316 106 2 -0.847600 5.790000 22.510000 34.380001 # OW SOL
317 106 1 0.423800 5.170000 22.850000 33.669998 # HW SOL
318 106 1 0.423800 5.330000 21.790001 34.910000 # HW SOL
319 107 2 -0.847600 13.950000 24.610001 20.889999 # OW SOL
320 107 1 0.423800 13.040000 24.219999 20.750000 # HW SOL
321 107 1 0.423800 13.870000 25.580000 21.129999 # HW SOL
322 108 2 -0.847600 13.380000 25.559999 27.650000 # OW SOL
323 108 1 0.423800 13.470000 26.549999 27.639999 # HW SOL
324 108 1 0.423800 14.210000 25.150000 28.040001 # HW SOL
325 109 2 -0.847600 19.980000 8.340000 39.910000 # OW SOL
326 109 1 0.423800 20.620001 7.920000 39.279999 # HW SOL
327 109 1 0.423800 19.049999 8.300000 39.529999 # HW SOL
328 110 2 -0.847600 11.950000 23.930000 5.630000 # OW SOL
329 110 1 0.423800 11.480000 23.500000 6.400000 # HW SOL
330 110 1 0.423800 12.080000 24.900000 5.810000 # HW SOL
331 111 2 -0.847600 35.590000 38.720001 6.240000 # OW SOL
332 111 1 0.423800 35.650002 37.720001 6.220000 # HW SOL
333 111 1 0.423800 36.509998 39.110001 6.210000 # HW SOL
334 112 2 -0.847600 37.919998 1.210000 32.919998 # OW SOL
335 112 1 0.423800 37.540001 1.460000 32.029999 # HW SOL
336 112 1 0.423800 37.720001 0.250000 33.110001 # HW SOL
337 113 2 -0.847600 21.500000 21.850000 20.030001 # OW SOL
338 113 1 0.423800 22.160000 21.219999 19.620001 # HW SOL
339 113 1 0.423800 20.820000 22.120001 19.340000 # HW SOL
340 114 2 -0.847600 27.510000 19.379999 21.320000 # OW SOL
341 114 1 0.423800 27.420000 18.719999 20.570000 # HW SOL
342 114 1 0.423800 27.410000 18.910000 22.190001 # HW SOL
343 115 2 -0.847600 30.910000 4.930000 5.260000 # OW SOL
344 115 1 0.423800 30.809999 5.910000 5.130000 # HW SOL
345 115 1 0.423800 31.129999 4.740000 6.210000 # HW SOL
346 116 2 -0.847600 36.939999 39.290001 28.270000 # OW SOL
347 116 1 0.423800 36.290001 39.099998 29.010000 # HW SOL
348 116 1 0.423800 37.689999 38.630001 28.320000 # HW SOL
349 117 2 -0.847600 21.360001 36.799999 3.440000 # OW SOL
350 117 1 0.423800 21.030001 36.020000 3.980000 # HW SOL
351 117 1 0.423800 21.520000 36.500000 2.500000 # HW SOL
352 118 2 -0.847600 33.910000 2.390000 14.200000 # OW SOL
353 118 1 0.423800 34.259998 2.160000 13.290000 # HW SOL
354 118 1 0.423800 34.650002 2.300000 14.870000 # HW SOL
355 119 2 -0.847600 12.430000 31.950001 25.700001 # OW SOL
356 119 1 0.423800 12.090000 32.889999 25.639999 # HW SOL
357 119 1 0.423800 12.700000 31.750000 26.639999 # HW SOL
358 120 2 -0.847600 7.510000 33.889999 27.059999 # OW SOL
359 120 1 0.423800 8.000000 33.700001 27.920000 # HW SOL
360 120 1 0.423800 6.530000 33.740002 27.200001 # HW SOL
361 121 2 -0.847600 1.940000 5.340000 36.660000 # OW SOL
362 121 1 0.423800 1.010000 4.980000 36.680000 # HW SOL
363 121 1 0.423800 2.300000 5.290000 35.730000 # HW SOL
364 122 2 -0.847600 12.690000 21.730000 18.490000 # OW SOL
365 122 1 0.423800 13.650000 21.480000 18.540001 # HW SOL
366 122 1 0.423800 12.300000 21.379999 17.639999 # HW SOL
367 123 2 -0.847600 16.500000 4.610000 19.240000 # OW SOL
368 123 1 0.423800 16.760000 4.830000 20.180000 # HW SOL
369 123 1 0.423800 16.240000 5.460000 18.760000 # HW SOL
370 124 2 -0.847600 16.760000 24.030001 35.189999 # OW SOL
371 124 1 0.423800 16.980000 24.959999 34.900002 # HW SOL
372 124 1 0.423800 16.990000 23.920000 36.160000 # HW SOL
373 125 2 -0.847600 21.600000 5.290000 19.709999 # OW SOL
374 125 1 0.423800 21.440001 4.770000 18.870001 # HW SOL
375 125 1 0.423800 22.580000 5.470000 19.799999 # HW SOL
376 126 2 -0.847600 3.300000 24.920000 1.140000 # OW SOL
377 126 1 0.423800 3.380000 25.799999 0.690000 # HW SOL
378 126 1 0.423800 3.070000 25.049999 2.110000 # HW SOL
379 127 2 -0.847600 38.669998 10.760000 20.809999 # OW SOL
380 127 1 0.423800 37.709999 10.480000 20.770000 # HW SOL
381 127 1 0.423800 38.830002 11.290000 21.639999 # HW SOL
382 128 2 -0.847600 33.000000 39.750000 1.050000 # OW SOL
383 128 1 0.423800 32.599998 39.040001 1.640000 # HW SOL
384 128 1 0.423800 33.040001 40.610001 1.550000 # HW SOL
385 129 2 -0.847600 8.860000 8.320000 6.740000 # OW SOL
386 129 1 0.423800 9.490000 9.100000 6.760000 # HW SOL
387 129 1 0.423800 8.950000 7.840000 5.870000 # HW SOL
388 130 2 -0.847600 17.059999 36.889999 16.440001 # OW SOL
389 130 1 0.423800 16.600000 36.000000 16.549999 # HW SOL
390 130 1 0.423800 16.420000 37.540001 16.020000 # HW SOL
391 131 2 -0.847600 32.340000 4.220000 17.629999 # OW SOL
392 131 1 0.423800 32.119999 4.280000 16.650000 # HW SOL
393 131 1 0.423800 31.690001 3.610000 18.080000 # HW SOL
394 132 2 -0.847600 4.900000 6.410000 0.280000 # OW SOL
395 132 1 0.423800 4.380000 5.820000 -0.330000 # HW SOL
396 132 1 0.423800 4.810000 6.080000 1.220000 # HW SOL
397 133 2 -0.847600 9.140000 30.670000 25.590000 # OW SOL
398 133 1 0.423800 9.390000 29.760000 25.260000 # HW SOL
399 133 1 0.423800 8.940000 31.260000 24.799999 # HW SOL
400 134 2 -0.847600 6.210000 10.820000 16.129999 # OW SOL
401 134 1 0.423800 5.580000 10.880000 15.360000 # HW SOL
402 134 1 0.423800 5.740000 10.430000 16.920000 # HW SOL
403 135 2 -0.847600 3.230000 23.650000 23.290001 # OW SOL
404 135 1 0.423800 2.310000 23.809999 22.910000 # HW SOL
405 135 1 0.423800 3.570000 24.500000 23.690001 # HW SOL
406 136 2 -0.847600 34.980000 7.910000 27.020000 # OW SOL
407 136 1 0.423800 34.490002 7.490000 27.780001 # HW SOL
408 136 1 0.423800 35.700001 8.510000 27.370001 # HW SOL
409 137 2 -0.847600 25.700001 1.760000 1.390000 # OW SOL
410 137 1 0.423800 26.000000 2.460000 0.740000 # HW SOL
411 137 1 0.423800 24.709999 1.660000 1.340000 # HW SOL
412 138 2 -0.847600 37.900002 36.660000 11.390000 # OW SOL
413 138 1 0.423800 36.970001 36.840000 11.690000 # HW SOL
414 138 1 0.423800 38.049999 35.669998 11.360000 # HW SOL
415 139 2 -0.847600 10.840000 23.879999 22.790001 # OW SOL
416 139 1 0.423800 11.600000 24.500000 22.980000 # HW SOL
417 139 1 0.423800 10.670000 23.860001 21.799999 # HW SOL
418 140 2 -0.847600 34.900002 18.780001 12.690000 # OW SOL
419 140 1 0.423800 34.700001 17.799999 12.710000 # HW SOL
420 140 1 0.423800 34.310001 19.250000 13.340000 # HW SOL
421 141 2 -0.847600 36.599998 15.000000 1.740000 # OW SOL
422 141 1 0.423800 36.970001 15.670000 2.390000 # HW SOL
423 141 1 0.423800 36.220001 15.490000 0.950000 # HW SOL
424 142 2 -0.847600 16.920000 10.490000 15.130000 # OW SOL
425 142 1 0.423800 15.940000 10.580000 15.310000 # HW SOL
426 142 1 0.423800 17.110001 9.570000 14.800000 # HW SOL
427 143 2 -0.847600 12.930000 33.900002 23.360001 # OW SOL
428 143 1 0.423800 12.190000 34.240002 22.780001 # HW SOL
429 143 1 0.423800 12.750000 34.150002 24.309999 # HW SOL
430 144 2 -0.847600 27.860001 34.369999 9.260000 # OW SOL
431 144 1 0.423800 28.250000 34.189999 10.170000 # HW SOL
432 144 1 0.423800 28.559999 34.740002 8.660000 # HW SOL
433 145 2 -0.847600 19.740000 25.940001 13.430000 # OW SOL
434 145 1 0.423800 20.420000 25.280001 13.750000 # HW SOL
435 145 1 0.423800 18.860001 25.760000 13.890000 # HW SOL
436 146 2 -0.847600 10.180000 32.169998 3.900000 # OW SOL
437 146 1 0.423800 10.960000 32.709999 4.200000 # HW SOL
438 146 1 0.423800 10.180000 31.280001 4.370000 # HW SOL
439 147 2 -0.847600 21.030001 3.810000 17.510000 # OW SOL
440 147 1 0.423800 20.040001 3.780000 17.700001 # HW SOL
441 147 1 0.423800 21.360001 2.880000 17.340000 # HW SOL
442 148 2 -0.847600 19.120001 14.950000 8.340000 # OW SOL
443 148 1 0.423800 18.240000 15.130000 7.880000 # HW SOL
444 148 1 0.423800 19.379999 14.000000 8.180000 # HW SOL
445 149 2 -0.847600 4.200000 26.770000 30.570000 # OW SOL
446 149 1 0.423800 4.620000 27.629999 30.299999 # HW SOL
447 149 1 0.423800 4.450000 26.549999 31.520000 # HW SOL
448 150 2 -0.847600 12.500000 2.780000 22.049999 # OW SOL
449 150 1 0.423800 11.770000 3.120000 22.660000 # HW SOL
450 150 1 0.423800 13.010000 2.050000 22.520000 # HW SOL
451 151 2 -0.847600 7.580000 22.290001 36.340000 # OW SOL
452 151 1 0.423800 8.170000 21.610001 35.900002 # HW SOL
453 151 1 0.423800 6.830000 22.540001 35.730000 # HW SOL
454 152 2 -0.847600 9.420000 34.750000 14.160000 # OW SOL
455 152 1 0.423800 9.890000 34.700001 13.270000 # HW SOL
456 152 1 0.423800 9.220000 35.709999 14.370000 # HW SOL
457 153 2 -0.847600 9.990000 23.240000 7.330000 # OW SOL
458 153 1 0.423800 9.070000 23.559999 7.120000 # HW SOL
459 153 1 0.423800 10.350000 23.750000 8.110000 # HW SOL
460 154 2 -0.847600 23.410000 17.540001 27.430000 # OW SOL
461 154 1 0.423800 24.219999 17.820000 27.950001 # HW SOL
462 154 1 0.423800 22.930000 18.350000 27.100000 # HW SOL
463 155 2 -0.847600 16.760000 6.860000 36.369999 # OW SOL
464 155 1 0.423800 16.980000 6.160000 35.689999 # HW SOL
465 155 1 0.423800 16.200001 7.570000 35.939999 # HW SOL
466 156 2 -0.847600 20.190001 18.990000 24.650000 # OW SOL
467 156 1 0.423800 19.450001 19.400000 25.190001 # HW SOL
468 156 1 0.423800 21.040001 19.040001 25.180000 # HW SOL
469 157 2 -0.847600 39.040001 11.810000 23.629999 # OW SOL
470 157 1 0.423800 39.459999 12.720000 23.700001 # HW SOL
471 157 1 0.423800 38.320000 11.730000 24.330000 # HW SOL
472 158 2 -0.847600 21.910000 39.660000 29.940001 # OW SOL
473 158 1 0.423800 21.790001 39.279999 30.850000 # HW SOL
474 158 1 0.423800 22.809999 39.380001 29.580000 # HW SOL
475 159 2 -0.847600 31.889999 13.370000 20.820000 # OW SOL
476 159 1 0.423800 31.719999 12.420000 20.530001 # HW SOL
477 159 1 0.423800 31.230000 13.630000 21.520000 # HW SOL
478 160 2 -0.847600 33.459999 27.150000 17.209999 # OW SOL
479 160 1 0.423800 34.310001 27.639999 17.370001 # HW SOL
480 160 1 0.423800 33.169998 27.299999 16.260000 # HW SOL
481 161 2 -0.847600 28.030001 34.860001 34.990002 # OW SOL
482 161 1 0.423800 28.559999 34.910000 34.139999 # HW SOL
483 161 1 0.423800 27.070000 35.080002 34.799999 # HW SOL
484 162 2 -0.847600 33.400002 29.139999 19.410000 # OW SOL
485 162 1 0.423800 33.619999 28.250000 19.799999 # HW SOL
486 162 1 0.423800 34.000000 29.330000 18.639999 # HW SOL
487 163 2 -0.847600 38.840000 33.049999 28.350000 # OW SOL
488 163 1 0.423800 38.869999 32.419998 29.129999 # HW SOL
489 163 1 0.423800 38.419998 32.590000 27.570000 # HW SOL
490 164 2 -0.847600 23.340000 4.680000 12.540000 # OW SOL
491 164 1 0.423800 23.120001 5.600000 12.880000 # HW SOL
492 164 1 0.423800 23.950001 4.230000 13.200000 # HW SOL
493 165 2 -0.847600 14.110000 34.330002 40.060001 # OW SOL
494 165 1 0.423800 13.180000 34.139999 39.770000 # HW SOL
495 165 1 0.423800 14.540000 34.959999 39.410000 # HW SOL
496 166 2 -0.847600 30.150000 21.809999 1.780000 # OW SOL
497 166 1 0.423800 29.730000 21.230000 2.480000 # HW SOL
498 166 1 0.423800 31.110001 21.559999 1.680000 # HW SOL
499 167 2 -0.847600 14.780000 28.469999 32.959999 # OW SOL
500 167 1 0.423800 15.200000 29.190001 33.509998 # HW SOL
501 167 1 0.423800 14.520000 27.709999 33.549999 # HW SOL
502 168 2 -0.847600 27.000000 32.820000 23.100000 # OW SOL
503 168 1 0.423800 27.760000 32.779999 23.740000 # HW SOL
504 168 1 0.423800 26.139999 32.799999 23.610001 # HW SOL
505 169 2 -0.847600 16.370001 24.139999 1.450000 # OW SOL
506 169 1 0.423800 15.430000 24.170000 1.790000 # HW SOL
507 169 1 0.423800 16.709999 23.200001 1.470000 # HW SOL
508 170 2 -0.847600 5.940000 28.820000 24.830000 # OW SOL
509 170 1 0.423800 6.430000 28.629999 25.690001 # HW SOL
510 170 1 0.423800 6.570000 28.790001 24.070000 # HW SOL
511 171 2 -0.847600 20.480000 10.270000 15.110000 # OW SOL
512 171 1 0.423800 20.139999 9.530000 14.530000 # HW SOL
513 171 1 0.423800 19.959999 10.300000 15.960000 # HW SOL
514 172 2 -0.847600 24.469999 31.160000 21.590000 # OW SOL
515 172 1 0.423800 25.420000 31.139999 21.270000 # HW SOL
516 172 1 0.423800 23.990000 31.910000 21.139999 # HW SOL
517 173 2 -0.847600 18.500000 20.490000 9.040000 # OW SOL
518 173 1 0.423800 17.510000 20.400000 9.150000 # HW SOL
519 173 1 0.423800 18.910000 19.590000 8.910000 # HW SOL
520 174 2 -0.847600 26.200001 7.030000 28.000000 # OW SOL